! TOUCHSTONE file generated by CST MICROWAVE STUDIO
! Date and time: Thu Mar 27 11:07:56 2025
! Project name: monolitic.cst
! Header version: 2018
! Port assignment regex: !\s*Touchstone port\s*([0-9]+)\s*=\s*(CST MWS port|CST DS port)\s*([0-9]+|Zmin|Zmax)\s*\(\"(.*)\"\)(\s*mode\s*([0-9]+))?.*
! Touchstone port assignment:
! Touchstone port 1 = CST MWS port 1 ("")
! Touchstone port 2 = CST MWS port 2 ("")
! S-Parameters are not renormalized. Unphysical impedance of 50 will be written to the file.
# GHz S MA R 50
0                  0.00324957008     -1.56727047       0.99999421   0.00177703721      0.999994337   0.00178279564    0.00324625248      179.632943
0.003              0.00324671691     -1.68180948      0.999994387   -0.0104170182      0.999994481   -0.0104127627    0.00324386748       179.69848
0.006              0.00324387609     -1.79651889      0.999994564    -0.022611075      0.999994624   -0.0226083194    0.00324148871      179.764157
0.009              0.00324104765     -1.91139829       0.99999474   -0.0348051331      0.999994767   -0.0348038744    0.00323911619      179.829975
0.01               0.00324010759     -1.94972913      0.999994798   -0.0388698195      0.999994815   -0.0388690591    0.00323832674      179.851945
0.012              0.00323823161     -2.02644729      0.999994915   -0.0469991926       0.99999491   -0.0469994278    0.00323674993      179.895933
0.015              0.00323542799     -2.14166549      0.999995091   -0.0591932535      0.999995053   -0.0591949796    0.00323438995      179.962031
0.018              0.00323263683     -2.25705248      0.999995266   -0.0713873158      0.999995195   -0.0713905297    0.00323203628      -179.97173
0.021              0.00322985813     -2.37260782      0.999995441   -0.0835813794      0.999995337   -0.0835860782    0.00322968894     -179.905351
0.024              0.00322709193     -2.48833111      0.999995615   -0.0957754445      0.999995478   -0.0957816252    0.00322734794     -179.838831
0.027              0.00322433824      -2.6042219      0.999995789    -0.107969511       0.99999562    -0.107977171    0.00322501331     -179.772171
0.03               0.00322159709     -2.72027977      0.999995963    -0.120163579      0.999995761    -0.120172714    0.00322268506     -179.705371
0.033              0.00321886851     -2.83650427      0.999996136    -0.132357648      0.999995901    -0.132368257    0.00322036323      -179.63843
0.036              0.00321615251     -2.95289495      0.999996309    -0.144551719      0.999996042    -0.144563797    0.00321804782     -179.571349
0.039              0.00321344913     -3.06945136      0.999996482    -0.156745792      0.999996182    -0.156759337    0.00321573887     -179.504128
0.042              0.00321075837     -3.18617302      0.999996654    -0.168939865      0.999996322    -0.168954874    0.00321343638     -179.436766
0.045              0.00320808027     -3.30305949      0.999996826    -0.181133941      0.999996461    -0.181150411    0.00321114039     -179.369265
0.048              0.00320541485     -3.42011027      0.999996997    -0.193328017      0.999996601    -0.193345945     0.0032088509     -179.301623
0.051              0.00320276212     -3.53732489      0.999997169    -0.205522096       0.99999674    -0.205541479    0.00320656795     -179.233841
0.054              0.00320012212     -3.65470287       0.99999734    -0.217716176      0.999996878    -0.217737011    0.00320429155     -179.165919
0.057              0.00319749487      -3.7722437       0.99999751    -0.229910257      0.999997017    -0.229932541    0.00320202173     -179.097857
0.06               0.00319488038     -3.88994689      0.999997681     -0.24210434      0.999997155     -0.24212807    0.00319975849     -179.029655
0.063              0.00319227868     -4.00781194       0.99999785    -0.254298425      0.999997292    -0.254323598    0.00319750188     -178.961313
0.066               0.0031896898     -4.12583832       0.99999802    -0.266492511       0.99999743    -0.266519124     0.0031952519     -178.892831
0.069              0.00318711375     -4.24402553      0.999998189    -0.278686598      0.999997567    -0.278714649    0.00319300858     -178.824209
0.072              0.00318455055     -4.36237303      0.999998358    -0.290880688      0.999997704    -0.290910173    0.00319077193     -178.755447
0.075              0.00318200024      -4.4808803      0.999998527    -0.303074779      0.999997841    -0.303105695    0.00318854198     -178.686546
0.078              0.00317946282     -4.59954679      0.999998695    -0.315268871      0.999997977    -0.315301216    0.00318631875     -178.617505
0.081              0.00317693833     -4.71837196      0.999998863    -0.327462965      0.999998113    -0.327496735    0.00318410226     -178.548325
0.084              0.00317442679     -4.83735527       0.99999903    -0.339657061      0.999998249    -0.339692254    0.00318189253     -178.479005
0.087              0.00317192821     -4.95649614      0.999999198    -0.351851159      0.999998384    -0.351887771    0.00317968959     -178.409546
0.09               0.00316944262     -5.07579402      0.999999364    -0.364045258      0.999998519    -0.364083286    0.00317749344     -178.339947
0.093              0.00316697004     -5.19524834      0.999999531    -0.376239359      0.999998654    -0.376278801    0.00317530412     -178.270209
0.096              0.00316451049     -5.31485853      0.999999697    -0.388433461      0.999998789    -0.388474314    0.00317312164     -178.200332
0.099              0.00316206399     -5.43462399      0.999999863    -0.400627566      0.999998923    -0.400669826    0.00317094603     -178.130316
0.102              0.00315963057     -5.55454413       1.00000003    -0.412821672      0.999999057    -0.412865337     0.0031687773      -178.06016
0.105              0.00315721024     -5.67461837       1.00000019    -0.425015779      0.999999191    -0.425060847    0.00316661548     -177.989866
0.108              0.00315480303      -5.7948461       1.00000036    -0.437209889      0.999999324    -0.437256355    0.00316446059     -177.919433
0.111              0.00315240896      -5.9152267       1.00000052       -0.449404      0.999999457    -0.449451863    0.00316231264     -177.848861
0.114              0.00315002805     -6.03575957       1.00000069    -0.461598113       0.99999959    -0.461647369    0.00316017167      -177.77815
0.117              0.00314766031     -6.15644408       1.00000085    -0.473792228      0.999999722    -0.473842874    0.00315803768     -177.707301
0.12               0.00314530578      -6.2772796       1.00000101    -0.485986345      0.999999855    -0.486038378    0.00315591071     -177.636314
0.123              0.00314296447      -6.3982655       1.00000118    -0.498180463      0.999999987    -0.498233881    0.00315379077     -177.565188
0.126               0.0031406364     -6.51940114       1.00000134    -0.510374583       1.00000012    -0.510429382    0.00315167788     -177.493924
0.129               0.0031383216     -6.64068586        1.0000015    -0.522568705       1.00000025    -0.522624883    0.00314957207     -177.422522
0.132              0.00313602007     -6.76211902       1.00000167    -0.534762829       1.00000038    -0.534820383    0.00314747335     -177.350982
0.135              0.00313373185     -6.88369994       1.00000183    -0.546956955       1.00000051    -0.547015881    0.00314538175     -177.279304
0.138              0.00313145696     -7.00542797       1.00000199    -0.559151083       1.00000064    -0.559211379    0.00314329728     -177.207488
0.141              0.00312919541     -7.12730243       1.00000215    -0.571345212       1.00000077    -0.571406875    0.00314121997     -177.135535
0.144              0.00312694722     -7.24932264       1.00000231    -0.583539343        1.0000009    -0.583602371    0.00313914985     -177.063444
0.147              0.00312471241     -7.37148791       1.00000247    -0.595733477       1.00000103    -0.595797865    0.00313708692     -176.991216
0.15               0.00312249101     -7.49379755       1.00000263    -0.607927612       1.00000116    -0.607993359    0.00313503121     -176.918851
0.153              0.00312028303     -7.61625086       1.00000279    -0.620121749       1.00000129    -0.620188851    0.00313298274     -176.846349
0.156               0.0031180885     -7.73884714       1.00000295    -0.632315888       1.00000142    -0.632384343    0.00313094154     -176.773709
0.159              0.00311590743     -7.86158566       1.00000311    -0.644510029       1.00000155    -0.644579834    0.00312890762     -176.700933
0.162              0.00311373984     -7.98446571       1.00000327    -0.656704172       1.00000168    -0.656775324    0.00312688101     -176.628021
0.165              0.00311158575     -8.10748656       1.00000343    -0.668898317        1.0000018    -0.668970812    0.00312486172     -176.554972
0.168              0.00310944518     -8.23064749       1.00000359    -0.681092464       1.00000193      -0.6811663    0.00312284977     -176.481786
0.171              0.00310731815     -8.35394775       1.00000374    -0.693286613       1.00000206    -0.693361788     0.0031208452     -176.408465
0.174              0.00310520467      -8.4773866        1.0000039    -0.705480764       1.00000219    -0.705557274    0.00311884801     -176.335007
0.177              0.00310310478     -8.60096329       1.00000406    -0.717674917       1.00000231    -0.717752759    0.00311685824     -176.261414
0.18               0.00310101848     -8.72467706       1.00000422    -0.729869072       1.00000244    -0.729948244    0.00311487589     -176.187685
0.183              0.00309894579     -8.84852715       1.00000437    -0.742063229       1.00000257    -0.742143728      0.003112901      -176.11382
0.186              0.00309688674     -8.97251278       1.00000453    -0.754257388       1.00000269    -0.754339211    0.00311093357      -176.03982
0.189              0.00309484134     -9.09663318       1.00000468    -0.766451549       1.00000282    -0.766534693    0.00310897365     -175.965686
0.192              0.00309280961     -9.22088756       1.00000484    -0.778645713       1.00000294    -0.778730175    0.00310702123     -175.891416
0.195              0.00309079157     -9.34527514       1.00000499    -0.790839878       1.00000307    -0.790925655    0.00310507635     -175.817011
0.198              0.00308878723     -9.46979513       1.00000515    -0.803034046       1.00000319    -0.803121135    0.00310313903     -175.742472
0.201              0.00308679661     -9.59444671        1.0000053    -0.815228215       1.00000332    -0.815316615    0.00310120928     -175.667799
0.204              0.00308481974     -9.71922908       1.00000546    -0.827422387       1.00000344    -0.827512093    0.00309928713     -175.592991
0.207              0.00308285662     -9.84414143       1.00000561    -0.839616561       1.00000357    -0.839707571     0.0030973726     -175.518049
0.21               0.00308090728     -9.96918293       1.00000577    -0.851810737       1.00000369    -0.851903048    0.00309546571     -175.442974
0.213              0.00307897173     -10.0943528       1.00000592    -0.864004915       1.00000381    -0.864098525    0.00309356649     -175.367765
0.216                 0.00307705     -10.2196501       1.00000607    -0.876199095       1.00000394    -0.876294001    0.00309167494     -175.292423
0.219              0.00307514209     -10.3450741       1.00000622    -0.888393278       1.00000406    -0.888489476    0.00308979109     -175.216948
0.222              0.00307324802     -10.4706239       1.00000638    -0.900587463       1.00000418    -0.900684951    0.00308791497     -175.141339
0.225              0.00307136782     -10.5962986       1.00000653     -0.91278165        1.0000043    -0.912880425    0.00308604659     -175.065598
0.228              0.00306950149     -10.7220975       1.00000668    -0.924975839       1.00000443    -0.925075898    0.00308418598     -174.989725
0.231              0.00306764906     -10.8480196       1.00000683    -0.937170031       1.00000455    -0.937271371    0.00308233315     -174.913719
0.234              0.00306581054      -10.974064       1.00000698    -0.949364224       1.00000467    -0.949466843    0.00308048813     -174.837582
0.237              0.00306398595       -11.10023       1.00000713     -0.96155842       1.00000479    -0.961662315    0.00307865094     -174.761313
0.24                0.0030621753     -11.2265165       1.00000728    -0.973752619       1.00000491    -0.973857786    0.00307682159     -174.684912
0.243              0.00306037861     -11.3529228       1.00000743    -0.985946819       1.00000503    -0.986053257    0.00307500011      -174.60838
0.246              0.00305859589     -11.4794479       1.00000758    -0.998141022       1.00000515    -0.998248727    0.00307318652     -174.531717
0.249              0.00305682716      -11.606091       1.00000773     -1.01033523       1.00000527      -1.0104442    0.00307138085     -174.454923
0.252              0.00305507244     -11.7328511       1.00000788     -1.02252943       1.00000539     -1.02263967     0.0030695831     -174.377998
0.255              0.00305333174     -11.8597272       1.00000803     -1.03472364       1.00000551     -1.03483514     0.0030677933     -174.300944
0.258              0.00305160508     -11.9867186       1.00000818     -1.04691786       1.00000563      -1.0470306    0.00306601148     -174.223759
0.261              0.00304989247     -12.1138243       1.00000833     -1.05911207       1.00000575     -1.05922607    0.00306423765     -174.146445
0.264              0.00304819392     -12.2410433       1.00000848     -1.07130629       1.00000587     -1.07142154    0.00306247183     -174.069001
0.267              0.00304650946     -12.3683747       1.00000862     -1.08350051       1.00000599     -1.08361701    0.00306071405     -173.991428
0.27               0.00304483909     -12.4958175       1.00000877     -1.09569473        1.0000061     -1.09581247    0.00305896432     -173.913726
0.273              0.00304318283     -12.6233709       1.00000892     -1.10788895       1.00000622     -1.10800794    0.00305722267     -173.835896
0.276               0.0030415407     -12.7510339       1.00000906     -1.12008318       1.00000634     -1.12020341    0.00305548911     -173.757937
0.279               0.0030399127     -12.8788054       1.00000921     -1.13227741       1.00000646     -1.13239887    0.00305376367      -173.67985
0.282              0.00303829886     -13.0066847       1.00000936     -1.14447164       1.00000657     -1.14459434    0.00305204637     -173.601635
0.285              0.00303669919     -13.1346706        1.0000095     -1.15666587       1.00000669      -1.1567898    0.00305033722     -173.523293
0.288              0.00303511369     -13.2627622       1.00000965     -1.16886011       1.00000681     -1.16898527    0.00304863625     -173.444824
0.291              0.00303354239     -13.3909585       1.00000979     -1.18105435       1.00000692     -1.18118073    0.00304694348     -173.366228
0.294              0.00303198529     -13.5192586       1.00000994     -1.19324859       1.00000704     -1.19337619    0.00304525893     -173.287505
0.297              0.00303044241     -13.6476614       1.00001008     -1.20544283       1.00000715     -1.20557166    0.00304358262     -173.208656
0.3                0.00302891377      -13.776166       1.00001022     -1.21763708       1.00000727     -1.21776712    0.00304191456     -173.129681
0.303              0.00302739937     -13.9047713       1.00001037     -1.22983133       1.00000739     -1.22996259    0.00304025479     -173.050581
0.306              0.00302589923     -14.0334764       1.00001051     -1.24202558        1.0000075     -1.24215805    0.00303860332     -172.971355
0.309              0.00302441337     -14.1622802       1.00001065     -1.25421983       1.00000761     -1.25435351    0.00303696016     -172.892004
0.312              0.00302294178     -14.2911818        1.0000108     -1.26641409       1.00000773     -1.26654897    0.00303532535     -172.812529
0.315              0.00302148449       -14.42018       1.00001094     -1.27860835       1.00000784     -1.27874444    0.00303369889     -172.732929
0.318              0.00302004151     -14.5492739       1.00001108     -1.29080261       1.00000796      -1.2909399    0.00303208082     -172.653206
0.321              0.00301861285     -14.6784625       1.00001122     -1.30299688       1.00000807     -1.30313536    0.00303047115     -172.573358
0.324              0.00301719851     -14.8077446       1.00001136     -1.31519114       1.00000818     -1.31533083     0.0030288699     -172.493388
0.327              0.00301579852     -14.9371194       1.00001151     -1.32738541        1.0000083     -1.32752629    0.00302727709     -172.413295
0.33               0.00301441289     -15.0665856       1.00001165     -1.33957969       1.00000841     -1.33972175    0.00302569274     -172.333079
0.333              0.00301304162     -15.1961423       1.00001179     -1.35177396       1.00000852     -1.35191721    0.00302411687      -172.25274
0.336              0.00301168472     -15.3257883       1.00001193     -1.36396824       1.00000863     -1.36411267    0.00302254951      -172.17228
0.339              0.00301034221     -15.4555228       1.00001207     -1.37616252       1.00000875     -1.37630814    0.00302099066     -172.091699
0.342               0.0030090141     -15.5853445       1.00001221      -1.3883568       1.00000886      -1.3885036    0.00301944036     -172.010996
0.345              0.00300770039     -15.7152524       1.00001235     -1.40055109       1.00000897     -1.40069906    0.00301789861     -171.930173
0.348               0.0030064011     -15.8452454       1.00001248     -1.41274537       1.00000908     -1.41289452    0.00301636545     -171.849229
0.351              0.00300511624     -15.9753225       1.00001262     -1.42493967       1.00000919     -1.42508998    0.00301484089     -171.768165
0.354              0.00300384582     -16.1054825       1.00001276     -1.43713396        1.0000093     -1.43728545    0.00301332494     -171.686982
0.357              0.00300258985     -16.2357244        1.0000129     -1.44932826       1.00000941     -1.44948091    0.00301181764     -171.605679
0.36               0.00300134833     -16.3660471       1.00001304     -1.46152256       1.00000952     -1.46167637      0.003010319     -171.524258
0.363              0.00300012127     -16.4964494       1.00001317     -1.47371686       1.00000963     -1.47387183    0.00300882903     -171.442718
0.366               0.0029989087     -16.6269304       1.00001331     -1.48591116       1.00000974     -1.48606729    0.00300734777      -171.36106
0.369               0.0029977106     -16.7574888       1.00001345     -1.49810547       1.00000985     -1.49826276    0.00300587522     -171.279285
0.372                0.002996527     -16.8881235       1.00001358     -1.51029978       1.00000996     -1.51045822    0.00300441141     -171.197392
0.375               0.0029953579     -17.0188335       1.00001372     -1.52249409       1.00001007     -1.52265368    0.00300295636     -171.115383
0.378              0.00299420331     -17.1496176       1.00001386     -1.53468841       1.00001017     -1.53484914    0.00300151008     -171.033257
0.381              0.00299306324     -17.2804748       1.00001399     -1.54688273       1.00001028     -1.54704461     0.0030000726     -170.951015
0.384               0.0029919377     -17.4114037       1.00001413     -1.55907705       1.00001039     -1.55924007    0.00299864394     -170.868657
0.387              0.00299082668     -17.5424035       1.00001426     -1.57127137        1.0000105     -1.57143553    0.00299722411     -170.786185
0.39               0.00298973021     -17.6734728        1.0000144      -1.5834657       1.00001061       -1.583631    0.00299581313     -170.703598
0.393              0.00298864829     -17.8046106       1.00001453     -1.59566003       1.00001071     -1.59582646    0.00299441103     -170.620896
0.396              0.00298758093     -17.9358157       1.00001466     -1.60785437       1.00001082     -1.60802192    0.00299301782     -170.538081
0.399              0.00298652812     -18.0670869        1.0000148      -1.6200487       1.00001093     -1.62021739    0.00299163352     -170.455152
0.402              0.00298548989     -18.1984232       1.00001493     -1.63224304       1.00001103     -1.63241285    0.00299025815      -170.37211
0.405              0.00298446623     -18.3298234       1.00001506     -1.64443738       1.00001114     -1.64460832    0.00298889173     -170.288956
0.408              0.00298345716     -18.4612862        1.0000152     -1.65663173       1.00001124     -1.65680378    0.00298753428      -170.20569
0.411              0.00298246267     -18.5928106       1.00001533     -1.66882608       1.00001135     -1.66899925    0.00298618581     -170.122312
0.414              0.00298148279     -18.7243954       1.00001546     -1.68102043       1.00001145     -1.68119471    0.00298484635     -170.038824
0.417               0.0029805175     -18.8560394       1.00001559     -1.69321478       1.00001156     -1.69339018    0.00298351592     -169.955224
0.42               0.00297956682     -18.9877414       1.00001573     -1.70540914       1.00001166     -1.70558565    0.00298219453     -169.871514
0.423              0.00297863075     -19.1195003       1.00001586      -1.7176035       1.00001177     -1.71778111     0.0029808822     -169.787695
0.426              0.00297770929     -19.2513149       1.00001599     -1.72979786       1.00001187     -1.72997658    0.00297957895     -169.703767
0.429              0.00297680247      -19.383184       1.00001612     -1.74199223       1.00001198     -1.74217205     0.0029782848     -169.619729
0.432              0.00297591026     -19.5151064       1.00001625      -1.7541866       1.00001208     -1.75436752    0.00297699977     -169.535584
0.435              0.00297503269     -19.6470809       1.00001638     -1.76638097       1.00001218     -1.76656298    0.00297572387     -169.451331
0.438              0.00297416976     -19.7791064       1.00001651     -1.77857535       1.00001229     -1.77875845    0.00297445713      -169.36697
0.441              0.00297332147     -19.9111816       1.00001664     -1.79076972       1.00001239     -1.79095392    0.00297319956     -169.282503
0.444              0.00297248782     -20.0433053       1.00001677     -1.80296411       1.00001249     -1.80314939    0.00297195118     -169.197929
0.447              0.00297166882     -20.1754764       1.00001689     -1.81515849       1.00001259     -1.81534486    0.00297071202      -169.11325
0.45               0.00297086447     -20.3076937       1.00001702     -1.82735288        1.0000127     -1.82754033    0.00296948208     -169.028465
0.453              0.00297007478     -20.4399559       1.00001715     -1.83954727        1.0000128      -1.8397358    0.00296826138     -168.943576
0.456              0.00296929975     -20.5722619       1.00001728     -1.85174166        1.0000129     -1.85193128    0.00296704995     -168.858582
0.459              0.00296853938     -20.7046103       1.00001741     -1.86393606         1.000013     -1.86412675     0.0029658478     -168.773485
0.462              0.00296779367     -20.8370001       1.00001753     -1.87613046        1.0000131     -1.87632222    0.00296465495     -168.688284
0.465              0.00296706263       -20.96943       1.00001766     -1.88832486        1.0000132     -1.88851769    0.00296347142     -168.602981
0.468              0.00296634626     -21.1018988       1.00001779     -1.90051927        1.0000133     -1.90071317    0.00296229722     -168.517576
0.471              0.00296564457     -21.2344053       1.00001791     -1.91271368        1.0000134     -1.91290864    0.00296113237     -168.432069
0.474              0.00296495754     -21.3669482       1.00001804     -1.92490809        1.0000135     -1.92510412     0.0029599769     -168.346461
0.477               0.0029642852     -21.4995263       1.00001817     -1.93710251        1.0000136     -1.93729959    0.00295883081     -168.260753
0.48               0.00296362753     -21.6321384       1.00001829     -1.94929693        1.0000137     -1.94949507    0.00295769413     -168.174944
0.483              0.00296298454     -21.7647833       1.00001842     -1.96149135        1.0000138     -1.96169055    0.00295656687     -168.089036
0.486              0.00296235622     -21.8974598       1.00001854     -1.97368578        1.0000139     -1.97388603    0.00295544905      -168.00303
0.489              0.00296174259     -22.0301665       1.00001867     -1.98588021         1.000014      -1.9860815    0.00295434069     -167.916925
0.492              0.00296114364     -22.1629023       1.00001879     -1.99807464        1.0000141     -1.99827698     0.0029532418     -167.830722
0.495              0.00296055938      -22.295666       1.00001891     -2.01026908       1.00001419     -2.01047246     0.0029521524     -167.744422
0.498              0.00295998979     -22.4284563       1.00001904     -2.02246352       1.00001429     -2.02266794    0.00295107252     -167.658026
0.501              0.00295943489      -22.561272       1.00001916     -2.03465796       1.00001439     -2.03486343    0.00295000216     -167.571533
0.504              0.00295889467     -22.6941118       1.00001928     -2.04685241       1.00001449     -2.04705891    0.00294894134     -167.484945
0.507              0.00295836913     -22.8269745       1.00001941     -2.05904686       1.00001458     -2.05925439    0.00294789008     -167.398263
0.51               0.00295785828     -22.9598589       1.00001953     -2.07124131       1.00001468     -2.07144988     0.0029468484     -167.311486
0.513               0.0029573621     -23.0927636       1.00001965     -2.08343577       1.00001478     -2.08364536    0.00294581631     -167.224615
0.516              0.00295688061     -23.2256876       1.00001977     -2.09563023       1.00001487     -2.09584085    0.00294479383     -167.137651
0.519              0.00295641379     -23.3586295       1.00001989     -2.10782469       1.00001497     -2.10803633    0.00294378098     -167.050595
0.522              0.00295596165      -23.491588       1.00002002     -2.12001916       1.00001507     -2.12023182    0.00294277777     -166.963446
0.525              0.00295552419      -23.624562       1.00002014     -2.13221363       1.00001516     -2.13242731    0.00294178422     -166.876207
0.528               0.0029551014     -23.7575502       1.00002026      -2.1444081       1.00001526      -2.1446228    0.00294080034     -166.788876
0.531              0.00295469328     -23.8905513       1.00002038     -2.15660258       1.00001535     -2.15681829    0.00293982616     -166.701456
0.534              0.00295429983     -24.0235641        1.0000205     -2.16879706       1.00001545     -2.16901378    0.00293886169     -166.613946
0.537              0.00295392105     -24.1565874       1.00002062     -2.18099154       1.00001554     -2.18120927    0.00293790693     -166.526347
0.54               0.00295355693     -24.2896198       1.00002074     -2.19318603       1.00001563     -2.19340476    0.00293696192      -166.43866
0.543              0.00295320748     -24.4226602       1.00002086     -2.20538052       1.00001573     -2.20560025    0.00293602667     -166.350886
0.546              0.00295287269     -24.5557073       1.00002097     -2.21757501       1.00001582     -2.21779575    0.00293510118     -166.263024
0.549              0.00295255255     -24.6887598       1.00002109     -2.22976951       1.00001592     -2.22999124    0.00293418549     -166.175076
0.552              0.00295224706     -24.8218165       1.00002121     -2.24196401       1.00001601     -2.24218674    0.00293327959     -166.087042
0.555              0.00295195622     -24.9548762       1.00002133     -2.25415852        1.0000161     -2.25438224    0.00293238352     -165.998924
0.558              0.00295168002     -25.0879375       1.00002145     -2.26635303       1.00001619     -2.26657774    0.00293149728      -165.91072
0.561              0.00295141847     -25.2209993       1.00002156     -2.27854754       1.00001629     -2.27877324    0.00293062088     -165.822433
0.564              0.00295117155     -25.3540602       1.00002168     -2.29074206       1.00001638     -2.29096874    0.00292975436     -165.734063
0.567              0.00295093926     -25.4871191        1.0000218     -2.30293658       1.00001647     -2.30316424    0.00292889771      -165.64561
0.57                0.0029507216     -25.6201746       1.00002191      -2.3151311       1.00001656     -2.31535974    0.00292805096     -165.557076
0.573              0.00295051857     -25.7532256       1.00002203     -2.32732562       1.00001665     -2.32755525    0.00292721412      -165.46846
0.576              0.00295033014     -25.8862708       1.00002215     -2.33952016       1.00001675     -2.33975075     0.0029263872     -165.379764
0.579              0.00295015633     -26.0193089       1.00002226     -2.35171469       1.00001684     -2.35194626    0.00292557023     -165.290988
0.582              0.00294999713     -26.1523386       1.00002238     -2.36390923       1.00001693     -2.36414177     0.0029247632     -165.202132
0.585              0.00294985252     -26.2853588       1.00002249     -2.37610377       1.00001702     -2.37633727    0.00292396615     -165.113199