! TOUCHSTONE file generated by CST MICROWAVE STUDIO
! Date and time: Wed Mar 19 15:52:52 2025
! Project name: monoloticOnLTCC.cst
! Parameters = {Delta_GND=2400; Delta_GND_MMIC=800; Delta_GND_Strip=1000; Delta_H=137; Delta_Linea=100; Delta_Pos1_Via=-150; Delta_Pos2_Via=200; Delta_W_Chip=150; Dist_Bordo_Via=500; Dist_Via=520; Eps_Meg=3.71; H_Ball=300; H_Chip=100; H_Sub=137; H_Sub_Meg=125; H_uFilo=150; L_GND_Strip=1800; L_Linea_Chip=1390; L_Linea_Megtron=7175; L_Linea_Top=500; L_Strip_Line=1000; N=0; Pos_PAD_GND=800; Raggio_PAD_Strip=100; Raggio_Passaggio_DW=250; Raggio_Passaggio_UP=250; Raggio_Patch_Interno=100; Raggio_Patch_Top=150; Raggio_Via_GND=65; Raggio_Via_Meg=150; Raggio_Via_Signal=65; W_50_Chip=70; W_50_Meg=275; W_50_Strip=140; W_50_uStriscia=170; W_GND=1500; W_GND_Strip=1500; W_Megtron=10000; W_Raccordo_Via=200; X_PAD=2000; Y_PAD=2000}
! Header version: 2018
! Port assignment regex: !\s*Touchstone port\s*([0-9]+)\s*=\s*(CST MWS port|CST DS port)\s*([0-9]+|Zmin|Zmax)\s*\(\"(.*)\"\)(\s*mode\s*([0-9]+))?.*
! Touchstone port assignment:
! Touchstone port 1 = CST MWS port 1 ("")
! Touchstone port 2 = CST MWS port 2 ("")
! S-Parameters are not renormalized. Unphysical impedance of 50 will be written to the file.
# GHz S MA R 50
0                 0.000515255171      158.531487                1  9.09267717e-05                1  3.06238415e-05   0.000536473745     -21.1821624
0.003             0.000490537267      166.952686      0.999998265    -0.174316636      0.999997842    -0.174358474   0.000564350883     -28.9849755
0.006             0.000477831785      176.053011      0.999995431    -0.348723716      0.999995231    -0.348747406   0.000601248982     -35.9593258
0.009             0.000478100963      -174.60266      0.999992594    -0.523130326      0.999992613    -0.523136178   0.000645620581     -42.0715992
0.01              0.000481100965      -171.52216      0.999991648    -0.581265759      0.999991739    -0.581265735   0.000661818935     -43.9242688
0.012             0.000491326465     -165.521273      0.999989755    -0.697536473       0.99998999    -0.697524798   0.000696035124     -47.3699628
0.015             0.000516516361     -157.132621      0.999986913    -0.871942168      0.999987362    -0.871913272   0.000751274245     -51.9432051
0.018             0.000552036998     -149.690475      0.999984069     -1.04634742      0.999984728     -1.04630161   0.000810349053     -55.8919917
0.021             0.000596045498     -143.268258      0.999981222     -1.22075224      0.999982088     -1.22068981   0.000872477869     -59.3129738
0.024             0.000646812392     -137.814832      0.999978372     -1.39515664      0.999979443     -1.39507789   0.000937050509     -62.2918429
0.027             0.000702875103     -133.217806       0.99997552     -1.56956062      0.999976792     -1.56946584    0.00100359243      -64.901451
0.03              0.000763067238     -129.347968      0.999972666      -1.7439642      0.999974136     -1.74385369    0.00107173396     -67.2023704
0.033             0.000826486734     -126.082796      0.999969808     -1.91836739      0.999971475     -1.91824143    0.00114118564      -69.244412
0.036             0.000892445236     -123.315814      0.999966948     -2.09277019      0.999968807     -2.09262907    0.00121171926      -71.068362
0.039             0.000960418966      -120.95845      0.999964086     -2.26717262      0.999966135     -2.26701662    0.00128315348     -72.7076104
0.042              0.00103000803     -118.938608      0.999961221     -2.44157468      0.999963456     -2.44140408    0.00135534295     -74.1895556
0.045              0.00110090498     -117.198157      0.999958353     -2.61597639      0.999960772     -2.61579147     0.0014281702     -75.5367658
0.048              0.00117287135     -115.690347      0.999955482     -2.79037775      0.999958083     -2.79017878    0.00150153951     -76.7679188
0.051              0.00124572039     -114.377518      0.999952609     -2.96477877      0.999955388     -2.96456602    0.00157537219     -77.8985532
0.054              0.00131930432     -113.229213      0.999949733     -3.13917946      0.999952688     -3.13895321    0.00164960309     -78.9416666
0.057              0.00139350509     -112.220669      0.999946854     -3.31357984      0.999949982     -3.31334034    0.00172417785      -79.908191
0.06               0.00146822743     -111.331625      0.999943972      -3.4879799      0.999947271     -3.48772743    0.00179905077     -80.8073707
0.063              0.00154339377     -110.545403      0.999941088     -3.66237967      0.999944554     -3.66211447     0.0018741832      -81.647065
0.066              0.00161894037     -109.848181        0.9999382     -3.83677914      0.999941832     -3.83650149    0.00194954221     -82.4339896
0.069               0.0016948144      -109.22843       0.99993531     -4.01117834      0.999939104     -4.01088847    0.00202509958     -83.1739116
0.072              0.00177097176     -108.676477      0.999932418     -4.18557726       0.99993637     -4.18527544    0.00210083098     -83.8718072
0.075              0.00184737533     -108.184153      0.999929522     -4.35997591      0.999933632     -4.35966239    0.00217671535     -84.5319893
0.078              0.00192399363     -107.744522      0.999926623     -4.53437431      0.999930887     -4.53404933    0.00225273429     -85.1582122
0.081              0.00200079982     -107.351662      0.999923722     -4.70877247      0.999928138     -4.70843627    0.00232887173     -85.7537578
0.084              0.00207777083      -107.00049      0.999920818     -4.88317039      0.999925382     -4.88282322    0.00240511349     -86.3215057
0.087              0.00215488673     -106.686621      0.999917911     -5.05756808      0.999922622     -5.05721018    0.00248144705     -86.8639924
0.09               0.00223213019     -106.406255      0.999915001     -5.23196555      0.999919856     -5.23159715    0.00255786128     -87.3834599
0.093              0.00230948608     -106.156084      0.999912088     -5.40636282      0.999917084     -5.40598415    0.00263434626     -87.8818968
0.096              0.00238694108     -105.933216      0.999909172     -5.58075988      0.999914307     -5.58037118    0.00271089308     -88.3610726
0.099              0.00246448343     -105.735112      0.999906253     -5.75515675      0.999911525     -5.75475825    0.00278749375     -88.8225664
0.102              0.00254210272     -105.559536      0.999903331     -5.92955344      0.999908737     -5.92914536    0.00286414104     -89.2677921
0.105              0.00261978962     -105.404511      0.999900407     -6.10394995      0.999905944     -6.10353252     0.0029408284     -89.6980186
0.108               0.0026975358      -105.26828      0.999897479     -6.27834629      0.999903145     -6.27791974    0.00301754988      -90.114388
0.111              0.00277533377     -105.149283      0.999894548     -6.45274248      0.999900341     -6.45230701    0.00309430002     -90.5179311
0.114              0.00285317673     -105.046125      0.999891615     -6.62713853      0.999897531     -6.62669436    0.00317107385     -90.9095801
0.117              0.00293105855     -104.957555      0.999888678     -6.80153443      0.999894716     -6.80108178    0.00324786679     -91.2901802
0.12               0.00300897361     -104.882452      0.999885738      -6.9759302      0.999891896     -6.97546927     0.0033246746     -91.6604995
0.123               0.0030869168     -104.819805      0.999882796     -7.15032585      0.999889071     -7.14985686    0.00340149338     -92.0212375
0.126               0.0031648834     -104.768703       0.99987985     -7.32472138       0.99988624     -7.32424454     0.0034783195     -92.3730324
0.129              0.00324286907     -104.728319      0.999876901     -7.49911681      0.999883403     -7.49863232    0.00355514957     -92.7164676
0.132              0.00332086982     -104.697905      0.999873949     -7.67351214      0.999880562      -7.6730202    0.00363198045     -93.0520779
0.135              0.00339888192      -104.67678      0.999870994     -7.84790738      0.999877714      -7.8474082    0.00370880918     -93.3803535
0.138               0.0034769019     -104.664322      0.999868036     -8.02230255      0.999874862     -8.02179631    0.00378563299     -93.7017456
0.141              0.00355492655     -104.659966      0.999865075     -8.19669764      0.999872004     -8.19618455    0.00386244926     -94.0166692
0.144              0.00363295281     -104.663194      0.999862111     -8.37109267      0.999869141     -8.37057291    0.00393925553     -94.3255073
0.147              0.00371097786      -104.67353      0.999859144     -8.54548764      0.999866273     -8.54496142    0.00401604948     -94.6286138
0.15               0.00378899901     -104.690539      0.999856174     -8.71988257      0.999863399     -8.71935006    0.00409282889     -94.9263158
0.153              0.00386701372     -104.713819        0.9998532     -8.89427746      0.999860521     -8.89373885    0.00416959166     -95.2189165
0.156              0.00394501959     -104.743001      0.999850224     -9.06867232      0.999857636      -9.0681278    0.00424633578     -95.5066973
0.159              0.00402301433     -104.777744      0.999847244     -9.24306716      0.999854747     -9.24251691    0.00432305934     -95.7899193
0.162              0.00410099579     -104.817732      0.999844261     -9.41746199      0.999851852     -9.41690618    0.00439976051     -96.0688257
0.165              0.00417896187     -104.862675      0.999841275     -9.59185681      0.999848952     -9.59129563    0.00447643753     -96.3436428
0.168              0.00425691059     -104.912301      0.999838286     -9.76625163      0.999846047     -9.76568525    0.00455308871     -96.6145817
0.171              0.00433484005     -104.966359      0.999835294     -9.94064647      0.999843137     -9.94007506    0.00462971242     -96.8818395
0.174              0.00441274841     -105.024617      0.999832298     -10.1150413      0.999840221     -10.1144651     0.0047063071     -97.1456004
0.177              0.00449063391     -105.086857        0.9998293     -10.2894362        0.9998373     -10.2888553    0.00478287123     -97.4060366
0.18               0.00456849485     -105.152877      0.999826298     -10.4638311      0.999834374     -10.4632457    0.00485940334     -97.6633096
0.183              0.00464632958     -105.222488      0.999823293     -10.6382261      0.999831443     -10.6376363    0.00493590201     -97.9175707
0.186               0.0047241365     -105.295514      0.999820285     -10.8126211      0.999828507     -10.8120271    0.00501236585      -98.168962
0.189              0.00480191407      -105.37179      0.999817274     -10.9870162      0.999825565     -10.9864181    0.00508879352     -98.4176169
0.192              0.00487966078     -105.451161      0.999814259     -11.1614113      0.999822619     -11.1608094    0.00516518372     -98.6636609
0.195              0.00495737516     -105.533484      0.999811242     -11.3358065      0.999819667     -11.3352009    0.00524153515      -98.907212
0.198              0.00503505579     -105.618622      0.999808221     -11.5102018       0.99981671     -11.5095927    0.00531784659     -99.1483816
0.201              0.00511270128     -105.706448      0.999805197     -11.6845972      0.999813748     -11.6839846     0.0053941168     -99.3872744
0.204              0.00519031025     -105.796843      0.999802169     -11.8589927      0.999810781     -11.8583769    0.00547034459     -99.6239895
0.207              0.00526788138     -105.889693      0.999799139     -12.0333883      0.999807809     -12.0327694    0.00554652879     -99.8586204
0.21               0.00534541336     -105.984892      0.999796105     -12.2077841      0.999804832     -12.2071621    0.00562266826     -100.091255
0.213              0.00542290491     -106.082341      0.999793068     -12.3821799      0.999801849     -12.3815552    0.00569876186     -100.321978
0.216              0.00550035476     -106.181946      0.999790028     -12.5565759      0.999798862     -12.5559485    0.00577480849     -100.550867
0.219              0.00557776169     -106.283616      0.999786985      -12.730972       0.99979587      -12.730342    0.00585080705     -100.777998
0.222              0.00565512447     -106.387269      0.999783938     -12.9053682      0.999792872     -12.9047359    0.00592675648     -101.003442
0.225              0.00573244189     -106.492824      0.999780888     -13.0797646       0.99978987     -13.0791301     0.0060026557     -101.227265
0.228              0.00580971279     -106.600206      0.999777835     -13.2541612      0.999786863     -13.2535245    0.00607850369     -101.449533
0.231              0.00588693599     -106.709345      0.999774779      -13.428558       0.99978385     -13.4279193     0.0061542994     -101.670305
0.234              0.00596411034     -106.820171      0.999771719     -13.6029549      0.999780833     -13.6023143    0.00623004182      -101.88964
0.237               0.0060412347     -106.932622      0.999768657      -13.777352      0.999777811     -13.7767097    0.00630572994     -102.107592
0.24               0.00611830796     -107.046636      0.999765591     -13.9517493      0.999774784     -13.9511054    0.00638136277     -102.324213
0.243              0.00619532899     -107.162156      0.999762521     -14.1261468      0.999771752     -14.1255015    0.00645693932     -102.539554
0.246              0.00627229669     -107.279126      0.999759449     -14.3005445      0.999768715     -14.2998978    0.00653245861     -102.753662
0.249              0.00634920998     -107.397495      0.999756373     -14.4749424      0.999765673     -14.4742946    0.00660791968     -102.966581
0.252              0.00642606778     -107.517213      0.999753294     -14.6493406      0.999762626     -14.6486916    0.00668332157     -103.178356
0.255              0.00650286901     -107.638232      0.999750212      -14.823739      0.999759575      -14.823089    0.00675866333     -103.389026
0.258              0.00657961261     -107.760507      0.999747127     -14.9981376      0.999756519     -14.9974868    0.00683394401     -103.598632
0.261              0.00665629752     -107.883996      0.999744038     -15.1725365      0.999753458     -15.1718849    0.00690916268      -103.80721
0.264              0.00673292271     -108.008657      0.999740946     -15.3469356      0.999750392     -15.3462834    0.00698431841     -104.014797
0.267              0.00680948713     -108.134452      0.999737851      -15.521335      0.999747321     -15.5206823    0.00705941028     -104.221427
0.27               0.00688598975     -108.261342      0.999734753     -15.6957346      0.999744246     -15.6950815    0.00713443737     -104.427133
0.273              0.00696242955     -108.389293      0.999731652     -15.8701346      0.999741166     -15.8694811    0.00720939876     -104.631946
0.276               0.0070388055     -108.518269      0.999728547     -16.0445348      0.999738081     -16.0438812    0.00728429356     -104.835896
0.279              0.00711511659      -108.64824      0.999725439     -16.2189353      0.999734991     -16.2182816    0.00735912085     -105.039012
0.282              0.00719136182     -108.779172      0.999722328     -16.3933361      0.999731897     -16.3926824    0.00743387974     -105.241322
0.285              0.00726754017     -108.911037      0.999719214     -16.5677372      0.999728798     -16.5670836    0.00750856934     -105.442851
0.288              0.00734365066     -109.043805      0.999716096     -16.7421386      0.999725695     -16.7414853    0.00758318875     -105.643626
0.291              0.00741969229      -109.17745      0.999712975     -16.9165404      0.999722586     -16.9158874     0.0076577371     -105.843671
0.294              0.00749566407     -109.311944      0.999709851     -17.0909424      0.999719474     -17.0902899     0.0077322135     -106.043008
0.297              0.00757156502     -109.447264      0.999706724     -17.2653448      0.999716356     -17.2646928    0.00780661707     -106.241662
0.3                0.00764739415     -109.583384      0.999703594     -17.4397476      0.999713234     -17.4390962    0.00788094693     -106.439652
0.303              0.00772315048     -109.720281       0.99970046     -17.6141507      0.999710108        -17.6135    0.00795520222        -106.637
0.306              0.00779883305     -109.857933      0.999697324     -17.7885542      0.999706977     -17.7879043    0.00802938206     -106.833726
0.309              0.00787444088     -109.996318      0.999694184      -17.962958      0.999703842      -17.962309    0.00810348558     -107.029849
0.312              0.00794997301     -110.135417      0.999691041     -18.1373622      0.999700702     -18.1367142    0.00817751193     -107.225388
0.315              0.00802542847     -110.275208      0.999687895     -18.3117668      0.999697557     -18.3111198    0.00825146024     -107.420359
0.318               0.0081008063     -110.415673      0.999684745     -18.4861717      0.999694408     -18.4855259    0.00832532966     -107.614781
0.321              0.00817610554     -110.556794      0.999681593     -18.6605771      0.999691255     -18.6599326    0.00839911931      -107.80867
0.324              0.00825132524     -110.698553      0.999678437     -18.8349828      0.999688097     -18.8343396    0.00847282835     -108.002041
0.327              0.00832646444     -110.840932      0.999675279      -19.009389      0.999684935     -19.0087472    0.00854645593      -108.19491
0.33                0.0084015222     -110.983917      0.999672117     -19.1837956      0.999681769     -19.1831553    0.00862000119     -108.387292
0.333              0.00847649755     -111.127489      0.999668952     -19.3582026      0.999678598     -19.3575639    0.00869346328       -108.5792
0.336              0.00855138957     -111.271636      0.999665784       -19.53261      0.999675423      -19.531973    0.00876684135     -108.770649
0.339               0.0086261973     -111.416341      0.999662613     -19.7070179      0.999672244     -19.7063826    0.00884013456     -108.961652
0.342              0.00870091981      -111.56159      0.999659438     -19.8814262       0.99966906     -19.8807927    0.00891334206     -109.152222
0.345              0.00877555614      -111.70737      0.999656261      -20.055835      0.999665872     -20.0552034    0.00898646301     -109.342371
0.348              0.00885010537     -111.853668      0.999653081     -20.2302442       0.99966268     -20.2296145    0.00905949656      -109.53211
0.351              0.00892456656     -112.000471      0.999649897     -20.4046539      0.999659484     -20.4040263    0.00913244188     -109.721452
0.354              0.00899893877     -112.147767      0.999646711     -20.5790641      0.999656283     -20.5784385    0.00920529812     -109.910407
0.357              0.00907322108     -112.295543      0.999643521     -20.7534748      0.999653079     -20.7528513    0.00927806444     -110.098986
0.36               0.00914741254     -112.443788      0.999640329     -20.9278859       0.99964987     -20.9272647       0.00935074     -110.287201
0.363              0.00922151223     -112.592491      0.999637133     -21.1022975      0.999646657     -21.1016786    0.00942332398     -110.475059
0.366              0.00929551923     -112.741642      0.999633934     -21.2767097       0.99964344     -21.2760931    0.00949581552     -110.662573
0.369               0.0093694326     -112.891229      0.999630733     -21.4511223      0.999640219     -21.4505082     0.0095682138      -110.84975
0.372              0.00944325142     -113.041243      0.999627528     -21.6255355      0.999636994     -21.6249238    0.00964051798       -111.0366
0.375              0.00951697478     -113.191674       0.99962432     -21.7999491      0.999633765     -21.7993401    0.00971272723     -111.223131
0.378              0.00959060173     -113.342512       0.99962111     -21.9743634      0.999630532     -21.9737569    0.00978484072     -111.409353
0.381              0.00966413137     -113.493749      0.999617896     -22.1487781      0.999627295     -22.1481743    0.00985685761     -111.595274
0.384              0.00973756278     -113.645375       0.99961468     -22.3231934      0.999624054     -22.3225923    0.00992877707     -111.780901
0.387              0.00981089504     -113.797381       0.99961146     -22.4976092       0.99962081      -22.497011     0.0100005983     -111.966242
0.39               0.00988412722     -113.949761      0.999608238     -22.6720256      0.999617561     -22.6714302     0.0100723204     -112.151305
0.393              0.00995725842     -114.102504      0.999605013     -22.8464426      0.999614309     -22.8458501     0.0101439426     -112.336098
0.396               0.0100302877     -114.255604      0.999601785     -23.0208601      0.999611052     -23.0202705      0.010215464     -112.520626
0.399               0.0101032142     -114.409053      0.999598554     -23.1952783      0.999607792     -23.1946917     0.0102868839     -112.704898
0.402                0.010176037     -114.562844       0.99959532      -23.369697      0.999604528     -23.3691134     0.0103582014     -112.888919
0.405               0.0102487551     -114.716969      0.999592083     -23.5441163      0.999601261     -23.5435358     0.0104294156     -113.072697
0.408               0.0103213677     -114.871421      0.999588844     -23.7185362      0.999597989     -23.7179589     0.0105005258     -113.256237
0.411               0.0103938738     -115.026194      0.999585602     -23.8929567      0.999594714     -23.8923826     0.0105715311     -113.439545
0.414               0.0104662726     -115.181281      0.999582356     -24.0673778      0.999591435     -24.0668069     0.0106424307     -113.622628
0.417               0.0105385631     -115.336675      0.999579109     -24.2417995      0.999588153     -24.2412319     0.0107132238     -113.805491
0.42                0.0106107444     -115.492371      0.999575858     -24.4162219      0.999584867     -24.4156576     0.0107839095      -113.98814
0.423               0.0106828156     -115.648362      0.999572604     -24.5906449      0.999581578      -24.590084      0.010854487     -114.170579
0.426               0.0107547759     -115.804643      0.999569348     -24.7650685      0.999578285     -24.7645111     0.0109249555     -114.352815
0.429               0.0108266243     -115.961208      0.999566089     -24.9394928      0.999574988     -24.9389388     0.0109953142     -114.534853
0.432               0.0108983599      -116.11805      0.999562828     -25.1139178      0.999571688     -25.1133673     0.0110655623     -114.716697
0.435               0.0109699818     -116.275166      0.999559563     -25.2883434      0.999568384     -25.2877964     0.0111356989     -114.898352
0.438               0.0110414891     -116.432549      0.999556296     -25.4627697      0.999565077     -25.4622263     0.0112057231     -115.079823
0.441               0.0111128809     -116.590195      0.999553027     -25.6371966      0.999561767     -25.6366569     0.0112756343     -115.261114
0.444               0.0111841564     -116.748099      0.999549755     -25.8116243      0.999558453     -25.8110882     0.0113454315     -115.442231
0.447               0.0112553145     -116.906255       0.99954648     -25.9860526      0.999555136     -25.9855202      0.011415114     -115.623176
0.45                0.0113263545     -117.064658      0.999543202     -26.1604816      0.999551816     -26.1599529     0.0114846809     -115.803955
0.453               0.0113972755     -117.223306      0.999539922     -26.3349114      0.999548492     -26.3343864     0.0115541314     -115.984571
0.456               0.0114680764     -117.382192      0.999536639     -26.5093418      0.999545165     -26.5088207     0.0116234647     -116.165029
0.459               0.0115387565     -117.541312      0.999533354      -26.683773      0.999541835     -26.6832556     0.0116926799     -116.345331
0.462               0.0116093149     -117.700663      0.999530066     -26.8582048      0.999538501     -26.8576914     0.0117617763     -116.525483
0.465               0.0116797507     -117.860239      0.999526776     -27.0326375      0.999535165     -27.0321279      0.011830753     -116.705488
0.468               0.0117500629     -118.020038      0.999523483     -27.2070708      0.999531825     -27.2065651     0.0118996092     -116.885349
0.471               0.0118202507     -118.180055      0.999520188     -27.3815049      0.999528482     -27.3810032     0.0119683441     -117.065069
0.474               0.0118903132     -118.340285      0.999516891     -27.5559398      0.999525136      -27.555442     0.0120369569     -117.244653
0.477               0.0119602495     -118.500726      0.999513591     -27.7303754      0.999521788     -27.7298816     0.0121054467     -117.424102
0.48                0.0120300587     -118.661374      0.999510288     -27.9048118      0.999518436      -27.904322     0.0121738128     -117.603422
0.483                 0.01209974     -118.822225      0.999506983     -28.0792489      0.999515081     -28.0787632     0.0122420542     -117.782614
0.486               0.0121692925     -118.983276      0.999503676     -28.2536868      0.999511723     -28.2532052     0.0123101703     -117.961682
0.489               0.0122387152     -119.144523      0.999500366     -28.4281256      0.999508362      -28.427648     0.0123781602     -118.140628
0.492               0.0123080073     -119.305963      0.999497054     -28.6025651      0.999504999     -28.6020916     0.0124460231     -118.319456
0.495               0.0123771679     -119.467592       0.99949374     -28.7770054      0.999501632     -28.7765361     0.0125137581     -118.498168
0.498               0.0124461962     -119.629408      0.999490424     -28.9514465      0.999498263     -28.9509813     0.0125813644     -118.676768
0.501               0.0125150912     -119.791407      0.999487105     -29.1258884      0.999494891     -29.1254274     0.0126488413     -118.855257
0.504               0.0125838521     -119.953586      0.999483784     -29.3003312      0.999491516     -29.2998744     0.0127161879     -119.033638
0.507               0.0126524781     -120.115943      0.999480461     -29.4747748      0.999488138     -29.4743222     0.0127834034     -119.211915
0.51                0.0127209681     -120.278474      0.999477135     -29.6492192      0.999484758     -29.6487708      0.012850487     -119.390089
0.513               0.0127893214     -120.441177      0.999473808     -29.8236645      0.999481375     -29.8232203     0.0129174379     -119.568163
0.516               0.0128575371     -120.604048      0.999470478     -29.9981106       0.99947799     -29.9976707     0.0129842552     -119.746139
0.519               0.0129256142     -120.767085      0.999467146     -30.1725575      0.999474602     -30.1721219     0.0130509382     -119.924019
0.522               0.0129935521     -120.930286      0.999463812     -30.3470053      0.999471211     -30.3465741      0.013117486     -120.101806
0.525               0.0130613497     -121.093648      0.999460477      -30.521454      0.999467818     -30.5210271     0.0131838978     -120.279502
0.528               0.0131290061     -121.257168      0.999457138     -30.6959036      0.999464422     -30.6954809     0.0132501729      -120.45711
0.531               0.0131965207     -121.420843      0.999453798     -30.8703541      0.999461024     -30.8699357     0.0133163104      -120.63463
0.534               0.0132638923     -121.584672      0.999450456     -31.0448054      0.999457624     -31.0443914     0.0133823095     -120.812065
0.537               0.0133311203     -121.748652      0.999447112     -31.2192577      0.999454221      -31.218848     0.0134481693     -120.989418
0.54                0.0133982037      -121.91278      0.999443766     -31.3937108      0.999450816     -31.3933055     0.0135138892      -121.16669
0.543               0.0134651417     -122.077054      0.999440418     -31.5681649      0.999447408     -31.5677639     0.0135794682     -121.343883
0.546               0.0135319334     -122.241473      0.999437069     -31.7426198      0.999443999     -31.7422233     0.0136449056     -121.520998
0.549               0.0135985779     -122.406033      0.999433717     -31.9170757      0.999440587     -31.9166836     0.0137102005     -121.698039
0.552               0.0136650745     -122.570733      0.999430363     -32.0915326      0.999437172     -32.0911448     0.0137753522     -121.875006
0.555               0.0137314221     -122.735571      0.999427008     -32.2659903      0.999433756      -32.265607     0.0138403598     -122.051901
0.558                 0.01379762     -122.900544      0.999423651      -32.440449      0.999430338     -32.4400701     0.0139052226     -122.228725
0.561               0.0138636673     -123.065651      0.999420292     -32.6149087      0.999426917     -32.6145342     0.0139699397     -122.405482
0.564               0.0139295632     -123.230889      0.999416931     -32.7893693      0.999423494     -32.7889992     0.0140345103     -122.582171
0.567               0.0139953068     -123.396256      0.999413569     -32.9638309       0.99942007     -32.9634652     0.0140989337     -122.758795
0.57                0.0140608972     -123.561752      0.999410205     -33.1382935      0.999416643     -33.1379322     0.0141632089     -122.935355